 TITLE="Rslt0031"
 VARIABLES = "x","y","rho","vx","vy","Pre"
 ZONE I=         320  J=          80  F=POINT
               0.00625000               0.00625000               7.90896251              -0.28723064               0.00038632               1.89280066
               0.01875000               0.00625000               7.90723054              -0.28728481               0.00029375               1.89256577
               0.03125000               0.00625000               7.91812212              -0.28817605               0.00009769               1.89647320
               0.04375000               0.00625000               7.93357178              -0.28945319              -0.00000905               1.90197239
               0.05625000               0.00625000               7.93352592              -0.28961004               0.00000772               1.90224670
               0.06875000               0.00625000               7.92177700              -0.28900448               0.00003398               1.89862797
               0.08125000               0.00625000               7.90840386              -0.28842768               0.00009058               1.89455514
               0.09375000               0.00625000               7.89687856              -0.28814389               0.00021898               1.89133604
               0.10625000               0.00625000               7.89162658              -0.28832789               0.00034712               1.89003624
               0.11875000               0.00625000               7.88673784              -0.28864648               0.00042070               1.88869448
               0.13125000               0.00625000               7.88069424              -0.28896274               0.00043959               1.88740690
               0.14375000               0.00625000               7.87338387              -0.28914518               0.00042996               1.88565031
               0.15625000               0.00625000               7.86608434              -0.28936008               0.00049749               1.88338854
               0.16875000               0.00625000               7.85490695              -0.28978224               0.00062298               1.88077199
               0.18125000               0.00625000               7.84775835              -0.29035413               0.00066724               1.87840099
               0.19375000               0.00625000               7.80957856              -0.29097755               0.00064630               1.87683520
               0.20625000               0.00625000               7.79817584              -0.29209525               0.00055432               1.87808642
               0.21875000               0.00625000               7.48314629              -0.29406363               0.00023535               1.88288462
               0.23125000               0.00625000               5.33013421              -0.29640669               0.00015523               1.88688861
               0.24375000               0.00625000               2.58004888              -0.29860853               0.00067842               1.88850655
               0.25625000               0.00625000               1.59223823              -0.30071735               0.00091065               1.88952950
               0.26875000               0.00625000               1.57112541              -0.30220683               0.00078450               1.89006078
               0.28125000               0.00625000               1.57000522              -0.30331329               0.00075352               1.89057506
               0.29375000               0.00625000               1.57026631              -0.30417846               0.00049249               1.89102716
               0.30625000               0.00625000               1.57031062              -0.30502562               0.00038823               1.89180593
               0.31875000               0.00625000               1.57071265              -0.30566643               0.00041977               1.89259751
               0.33125000               0.00625000               1.57081134              -0.30613072               0.00051402               1.89333041
               0.34375000               0.00625000               1.57095315              -0.30653084               0.00036692               1.89361915
               0.35625000               0.00625000               1.57087145              -0.30685005              -0.00006876               1.89356024
               0.36875000               0.00625000               1.57074188              -0.30671570              -0.00009998               1.89335920
               0.38125000               0.00625000               1.57030448              -0.30621578               0.00051325               1.89286234
               0.39375000               0.00625000               1.56986189              -0.30599396               0.00121601               1.89252700
               0.40625000               0.00625000               1.56983804              -0.30640739               0.00118352               1.89259143
               0.41875000               0.00625000               1.57028942              -0.30767260               0.00078416               1.89335333
               0.43125000               0.00625000               1.57116209              -0.30921712               0.00059938               1.89482607
               0.44375000               0.00625000               1.57228725              -0.31065076               0.00069419               1.89698558
               0.45625000               0.00625000               1.57235555              -0.31189007               0.00078751               1.89906157
               0.46875000               0.00625000               1.57205869              -0.31332631               0.00092758               1.90040930
               0.48125000               0.00625000               1.57320435              -0.31496425               0.00114319               1.90089122
               0.49375000               0.00625000               1.57490143              -0.31645557               0.00122573               1.90085760
               0.50625000               0.00625000               1.57554624              -0.31736029               0.00080182               1.90049442
               0.51875000               0.00625000               1.57515612              -0.31762831               0.00021795               1.89964036
               0.53125000               0.00625000               1.57431443              -0.31761899               0.00013564               1.89821785
               0.54375000               0.00625000               1.57338582              -0.31766701               0.00063542               1.89664821
               0.55625000               0.00625000               1.57287537              -0.31793517               0.00109984               1.89576551
               0.56875000               0.00625000               1.57289630              -0.31854721               0.00118821               1.89575905
               0.58125000               0.00625000               1.57305610              -0.31955529               0.00107574               1.89600233
               0.59375000               0.00625000               1.57295617              -0.32085176               0.00115151               1.89579689
               0.60625000               0.00625000               1.57278900              -0.32228452               0.00144929               1.89547213
               0.61875000               0.00625000               1.57266751              -0.32355293               0.00156086               1.89524159
               0.63125000               0.00625000               1.57249776              -0.32463167               0.00142968               1.89494117
               0.64375000               0.00625000               1.57203307              -0.32555580               0.00138380               1.89414625
               0.65625000               0.00625000               1.57120999              -0.32640625               0.00162192               1.89274584
               0.66875000               0.00625000               1.57020769              -0.32741680               0.00172680               1.89104337
               0.68125000               0.00625000               1.56900461              -0.32862457               0.00150465               1.88901039
               0.69375000               0.00625000               1.56766441              -0.32983685               0.00126950               1.88675197
               0.70625000               0.00625000               1.56664156              -0.33087774               0.00131444               1.88502969
               0.71875000               0.00625000               1.56613230              -0.33195672               0.00168063               1.88417229
               0.73125000               0.00625000               1.56568398              -0.33350182               0.00183299               1.88341837
               0.74375000               0.00625000               1.56492456              -0.33560944               0.00154396               1.88214538
               0.75625000               0.00625000               1.56431013              -0.33782115               0.00116124               1.88111874
               0.76875000               0.00625000               1.56447668              -0.33965623               0.00108207               1.88140504
               0.78125000               0.00625000               1.56516751              -0.34121959               0.00128532               1.88257758
               0.79375000               0.00625000               1.56561558              -0.34299175               0.00139980               1.88334908
               0.80625000               0.00625000               1.56562491              -0.34514586               0.00121910               1.88337774
               0.81875000               0.00625000               1.56569623              -0.34716318               0.00084044               1.88349831
               0.83125000               0.00625000               1.56623018              -0.34856065               0.00063691               1.88439252
               0.84375000               0.00625000               1.56701007              -0.34945416               0.00067739               1.88570232
               0.85625000               0.00625000               1.56758408              -0.35024792               0.00076429               1.88667094
               0.86875000               0.00625000               1.56790095              -0.35097282               0.00073227               1.88721004
               0.88125000               0.00625000               1.56830161              -0.35130934               0.00059280               1.88788701
               0.89375000               0.00625000               1.56899390              -0.35110752               0.00036993               1.88905045
               0.90625000               0.00625000               1.56978328              -0.35056801               0.00010927               1.89037639
               0.91875000               0.00625000               1.57048965              -0.34983433              -0.00013621               1.89156446
               0.93125000               0.00625000               1.57112188              -0.34892243              -0.00036910               1.89263023
               0.94375000               0.00625000               1.57161062              -0.34779908              -0.00052029               1.89345441
               0.95625000               0.00625000               1.57191602              -0.34650224              -0.00051912               1.89397567
               0.96875000               0.00625000               1.57212188              -0.34506111              -0.00051267               1.89434532
               0.98125000               0.00625000               1.57237220              -0.34343717              -0.00056059               1.89478284
               0.99375000               0.00625000               1.57257353              -0.34171280              -0.00068424               1.89512362
               1.00625000               0.00625000               1.57257486              -0.34002073              -0.00082072               1.89512508
               1.01875000               0.00625000               1.57247313              -0.33828765              -0.00091474               1.89495001
               1.03125000               0.00625000               1.57239129              -0.33642315              -0.00095083               1.89480908
               1.04375000               0.00625000               1.57232852              -0.33446532              -0.00094519               1.89470396
               1.05625000               0.00625000               1.57221474              -0.33248926              -0.00093361               1.89451451
               1.06875000               0.00625000               1.57204651              -0.33049256              -0.00095690               1.89423357
               1.08125000               0.00625000               1.57181931              -0.32846054              -0.00100583               1.89385300
               1.09375000               0.00625000               1.57146827              -0.32646358              -0.00097236               1.89326409
               1.10625000               0.00625000               1.57094003              -0.32458546              -0.00086670               1.89238020
               1.11875000               0.00625000               1.57043507              -0.32273425              -0.00080566               1.89154154
               1.13125000               0.00625000               1.57022773              -0.32074116              -0.00087549               1.89120649
               1.14375000               0.00625000               1.57027414              -0.31865504              -0.00102940               1.89129169
               1.15625000               0.00625000               1.57019038              -0.31672712              -0.00117502               1.89114384
               1.16875000               0.00625000               1.56976078              -0.31509101              -0.00126015               1.89040391
               1.18125000               0.00625000               1.56922766              -0.31360033              -0.00127726               1.88949375
               1.19375000               0.00625000               1.56895075              -0.31196710              -0.00096711               1.88903141
               1.20625000               0.00625000               1.56892577              -0.31026028              -0.00040368               1.88900980
               1.21875000               0.00625000               1.56921636              -0.30860248               0.00005354               1.88952292
               1.23125000               0.00625000               1.56966225              -0.30688844               0.00018640               1.89028313
               1.24375000               0.00625000               1.57048169              -0.30503376               0.00007565               1.89165233
               1.25625000               0.00625000               1.57155436              -0.30304603              -0.00003045               1.89344073
               1.26875000               0.00625000               1.57248955              -0.30121226               0.00006538               1.89501186
               1.28125000               0.00625000               1.57308822              -0.29969785               0.00036145               1.89604048
               1.29375000               0.00625000               1.57349718              -0.29841355               0.00074416               1.89675881
               1.30625000               0.00625000               1.57403955              -0.29711268               0.00087701               1.89768848
               1.31875000               0.00625000               1.57479338              -0.29560705               0.00059007               1.89896193
               1.33125000               0.00625000               1.57521904              -0.29430737               0.00011638               1.89968038
               1.34375000               0.00625000               1.57497224              -0.29345703              -0.00005205               1.89926347
               1.35625000               0.00625000               1.57467698              -0.29275477               0.00014041               1.89877264
               1.36875000               0.00625000               1.57469236              -0.29201288               0.00036819               1.89881740
               1.38125000               0.00625000               1.57471722              -0.29141413               0.00023093               1.89886358
               1.39375000               0.00625000               1.57454744              -0.29097476              -0.00009428               1.89856295
               1.40625000               0.00625000               1.57439258              -0.29043830              -0.00028235               1.89829075
               1.41875000               0.00625000               1.57426098              -0.28984214              -0.00008132               1.89807887
               1.43125000               0.00625000               1.57412015              -0.28940878               0.00038444               1.89786922
               1.44375000               0.00625000               1.57424723              -0.28909125               0.00064743               1.89810425
               1.45625000               0.00625000               1.57495559              -0.28850041               0.00053557               1.89930299
               1.46875000               0.00625000               1.57566897              -0.28788425               0.00034135               1.90050497
               1.48125000               0.00625000               1.57559854              -0.28762397               0.00018975               1.90038401
               1.49375000               0.00625000               1.57514577              -0.28744670               0.00017055               1.89962361
               1.50625000               0.00625000               1.57488043              -0.28716762               0.00023262               1.89918131
               1.51875000               0.00625000               1.57508798              -0.28668288               0.00020351               1.89953078
               1.53125000               0.00625000               1.57563206              -0.28611645               0.00017421               1.90044599
               1.54375000               0.00625000               1.57611765              -0.28561321               0.00014685               1.90126393
               1.55625000               0.00625000               1.57631219              -0.28519402               0.00021832               1.90159217
               1.56875000               0.00625000               1.57638519              -0.28469634               0.00032118               1.90171574
               1.58125000               0.00625000               1.57661078              -0.28398104               0.00020049               1.90209290
               1.59375000               0.00625000               1.57696411              -0.28320065              -0.00013899               1.90267961
               1.60625000               0.00625000               1.57719866              -0.28265873              -0.00028176               1.90307904
               1.61875000               0.00625000               1.57720002              -0.28228186               0.00004338               1.90309646
               1.63125000               0.00625000               1.57706512              -0.28196372               0.00025197               1.90287221
               1.64375000               0.00625000               1.57689859              -0.28168369              -0.00003951               1.90257660
               1.65625000               0.00625000               1.57666247              -0.28142746              -0.00041608               1.90216425
               1.66875000               0.00625000               1.57643334              -0.28132081              -0.00033261               1.90178110
               1.68125000               0.00625000               1.57623617              -0.28118406               0.00012827               1.90146067
               1.69375000               0.00625000               1.57586327              -0.28119700               0.00044316               1.90083596
               1.70625000               0.00625000               1.57527423              -0.28131374               0.00021025               1.89983584
               1.71875000               0.00625000               1.57434456              -0.28152143              -0.00014852               1.89825957
               1.73125000               0.00625000               1.57330346              -0.28197241              -0.00002886               1.89650460
               1.74375000               0.00625000               1.57220607              -0.28266875               0.00028281               1.89466167
               1.75625000               0.00625000               1.57121132              -0.28337769               0.00031711               1.89298916
               1.76875000               0.00625000               1.57027463              -0.28392016               0.00005558               1.89141059
               1.78125000               0.00625000               1.56941326              -0.28434826              -0.00026992               1.88995799
               1.79375000               0.00625000               1.56862484              -0.28480295              -0.00005617               1.88863042
               1.80625000               0.00625000               1.56804591              -0.28534492               0.00040994               1.88766563
               1.81875000               0.00625000               1.56752518              -0.28600157               0.00049836               1.88678971
               1.83125000               0.00625000               1.56693251              -0.28651232               0.00000601               1.88577480
               1.84375000               0.00625000               1.56617838              -0.28695191              -0.00035860               1.88449559
               1.85625000               0.00625000               1.56550509              -0.28743575              -0.00022303               1.88337525
               1.86875000               0.00625000               1.56469277              -0.28819791               0.00026666               1.88202977
               1.88125000               0.00625000               1.56371901              -0.28913722               0.00036337               1.88039837
               1.89375000               0.00625000               1.56280352              -0.28979838              -0.00013562               1.87886025
               1.90625000               0.00625000               1.56232235              -0.28971755              -0.00081464               1.87807953
               1.91875000               0.00625000               1.56218719              -0.28922220              -0.00105377               1.87785697
               1.93125000               0.00625000               1.56186191              -0.28895172              -0.00045072               1.87752232
               1.94375000               0.00625000               1.56063631              -0.28913133               0.00041078               1.87644749
               1.95625000               0.00625000               1.55881869              -0.28956358               0.00024375               1.87468671
               1.96875000               0.00625000               1.55761105              -0.28994871              -0.00065324               1.87340752
               1.98125000               0.00625000               1.55727316              -0.29005232              -0.00118814               1.87305579
               1.99375000               0.00625000               1.55704260              -0.29012425              -0.00075849               1.87272375
               2.00625000               0.00625000               1.55649184              -0.29047100               0.00034994               1.87183285
               2.01875000               0.00625000               1.55569194              -0.29108282               0.00096561               1.87049275
               2.03125000               0.00625000               1.55508172              -0.29169154               0.00065218               1.86951110
               2.04375000               0.00625000               1.55483666              -0.29166141              -0.00015797               1.86935965
               2.05625000               0.00625000               1.55481369              -0.29108938              -0.00089255               1.86973625
               2.06875000               0.00625000               1.55490556              -0.29030010              -0.00095002               1.87027021
               2.08125000               0.00625000               1.55489644              -0.28973425              -0.00033829               1.87056868
               2.09375000               0.00625000               1.55494322              -0.28956321               0.00039649               1.87087200
               2.10625000               0.00625000               1.55530701              -0.28951365               0.00061402               1.87155134
               2.11875000               0.00625000               1.55608462              -0.28910992               0.00022038               1.87281553
               2.13125000               0.00625000               1.55699662              -0.28822942              -0.00027550               1.87428865
               2.14375000               0.00625000               1.55774639              -0.28734473              -0.00035438               1.87552556
               2.15625000               0.00625000               1.55813122              -0.28688435              -0.00008099               1.87617630
               2.16875000               0.00625000               1.55821835              -0.28688477               0.00010240               1.87633153
               2.18125000               0.00625000               1.55815771              -0.28702382               0.00003996               1.87623853
               2.19375000               0.00625000               1.55808610              -0.28690243              -0.00007182               1.87612091
               2.20625000               0.00625000               1.55792808              -0.28651269              -0.00004116               1.87585659
               2.21875000               0.00625000               1.55755484              -0.28618561              -0.00017365               1.87525165
               2.23125000               0.00625000               1.55718314              -0.28607049              -0.00045588               1.87466826
               2.24375000               0.00625000               1.55700495              -0.28599044              -0.00054456               1.87440867
               2.25625000               0.00625000               1.55698159              -0.28568406              -0.00019679               1.87443608
               2.26875000               0.00625000               1.55722444              -0.28507203               0.00034113               1.87493809
               2.28125000               0.00625000               1.55775086              -0.28445885               0.00039317               1.87585367
               2.29375000               0.00625000               1.55843556              -0.28392819              -0.00018206               1.87692817
               2.30625000               0.00625000               1.55911829              -0.28340556              -0.00064913               1.87798997
               2.31875000               0.00625000               1.55985169              -0.28271461              -0.00037360               1.87923240
               2.33125000               0.00625000               1.56069267              -0.28184761               0.00022264               1.88072642
               2.34375000               0.00625000               1.56154652              -0.28117379               0.00041633               1.88222474
               2.35625000               0.00625000               1.56195876              -0.28109199              -0.00004758               1.88291692
               2.36875000               0.00625000               1.56213364              -0.28116444              -0.00066956               1.88316717
               2.38125000               0.00625000               1.56233366              -0.28097815              -0.00084611               1.88347168
               2.39375000               0.00625000               1.56262452              -0.28056111              -0.00046308               1.88398311
               2.40625000               0.00625000               1.56309752              -0.28014087               0.00004068               1.88484464
               2.41875000               0.00625000               1.56358972              -0.27997559               0.00009385               1.88572966
               2.43125000               0.00625000               1.56394208              -0.28002779              -0.00017148               1.88633132
               2.44375000               0.00625000               1.56422500              -0.27997445              -0.00050882               1.88677552
               2.45625000               0.00625000               1.56460395              -0.27967002              -0.00064841               1.88738276